/*--------------------------------*- C++ -*----------------------------------*\
| =========                 |                                                 |
| \\      /  F ield         | OpenFOAM: The Open Source CFD Toolbox           |
|  \\    /   O peration     | Version:  2.3.1                                 |
|   \\  /    A nd           | Web:      www.OpenFOAM.org                      |
|    \\/     M anipulation  |                                                 |
\*---------------------------------------------------------------------------*/
FoamFile
{
    version     2.0;
    format      ascii;
    class       volScalarField;
    location    "0";
    object      nut;
}
// * * * * * * * * * * * * * * * * * * * * * * * * * * * * * * * * * * * * * //

#include	"../../includeSettings"

dimensions      [0 2 -1 0 0 0 0];

internalField   uniform 0;

boundaryField
{
    inlet
    {
        type            calculated;
        value           uniform 0;
    }

    outlet
    {
        type            calculated;
        value           uniform 0;
    }

    terrain
    {
    // Mandatory entries (unmodifiable)
        type            atmNutUWallFunction;
        boundNut        false;
        value           $internalField;
        z0              $Z0_TI;
        //#include        "include/ABLConditions"
    }

    ground
    {
    // Mandatory entries (unmodifiable)
        type            atmNutUWallFunction;
        boundNut        false;
        value           $internalField;
        z0              $Z0_TI;
        //#include        "include/ABLConditions"
    }


    #include "include/sideAndTopPatches"
}


// ************************************************************************* //
